 Gaussian 16, Revision A.03,
 Gaussian 16:  ES64L-G16RevA.03 25-Dec-2016

 -----------------------------------
 #p m062x/cc-pvtz pop=nboread Nosymm
 -----------------------------------

 --
 sp
 --
 Symbolic Z-matrix:
 Charge =  2 Multiplicity = 1

                          Input orientation:
 ---------------------------------------------------------------------
 Center     Atomic      Atomic             Coordinates (Angstroms)
 Number     Number       Type             X           Y           Z
 ---------------------------------------------------------------------
      1         20           0        0.000000    0.000000    0.000000
      2          6           0        0.232892    1.177177    6.074175
      3          6           0        0.385926   -0.040304    5.415779
      4          1           0        1.344843   -0.361549    5.004039
      5          1           0        1.088181    1.830545    6.206315
      6          6           0       -1.019207    1.586777    6.527931
      7          1           0       -1.179910    2.554102    6.988097
      8          6           0       -2.095830    0.738128    6.319729
      9          7           0       -3.443022    1.175776    6.707180
     10          8           0       -3.538377    2.148019    7.425445
     11          8           0       -4.385133    0.538765    6.270405
     12          6           0       -1.972725   -0.491864    5.693822
     13          1           0       -2.850147   -1.106426    5.543875
     14          6           0       -0.720610   -0.879128    5.234402
     15          6           0       -0.591308   -2.087951    4.380373
     16          7           0       -0.512709   -1.766819    3.018129
     17          6           0       -0.016758   -2.607113    2.076194
     18          8           0        0.276758   -2.183875    0.934825
     19          1           0       -0.629631   -0.787198    2.756172
     20          6           0       -0.559186   -3.364781    4.751388
     21          1           0       -0.607537   -3.647643    5.794943
     22          6           0       -0.436494   -4.429478    3.699933
     23          1           0        0.224846   -5.230014    4.043067
     24          1           0       -1.408627   -4.894471    3.466576
     25          7           0        0.147409   -3.897008    2.455244
     26          6           0        0.602462   -4.869172    1.512714
     27          6           0        1.837948   -5.482658    1.696163
     28          1           0        2.471291   -5.148984    2.512811
     29          6           0        2.281204   -6.458055    0.807640
     30          1           0        3.261470   -6.899649    0.942230
     31          6           0        1.470205   -6.812390   -0.267488
     32          1           0        1.810942   -7.553708   -0.984800
     33          6           0        0.227917   -6.213948   -0.452618
     34          1           0       -0.411329   -6.480114   -1.289303
     35          6           0       -0.224915   -5.242010    0.442684
     36          8           0       -1.429874   -4.643522    0.326534
     37          1           0       -1.849547   -4.934220   -0.506922
 ---------------------------------------------------------------------

 SCF Done:  E(RM062X) =  -1759.62167417     A.U. after   18 cycles

 Alpha  occ. eigenvalues -- -147.18006 -19.90426 -19.86348 -19.82074 -19.81857
 Alpha  occ. eigenvalues --  -16.28706 -15.16035 -15.04978 -15.03382 -13.39492
 Alpha  occ. eigenvalues --  -13.39479 -13.39425 -10.95012 -10.81710 -10.80983
 Alpha  occ. eigenvalues --  -10.80385 -10.79117 -10.78410 -10.77612 -10.76570
 Alpha  occ. eigenvalues --  -10.76511 -10.76120 -10.75633 -10.75515 -10.74353
 Alpha  occ. eigenvalues --  -10.73543 -10.73420 -10.72566  -2.37370  -1.60626
 Alpha  occ. eigenvalues --   -1.60534  -1.59942  -1.52905  -1.46650  -1.39733
 Alpha  occ. eigenvalues --   -1.34181  -1.33838  -1.28778  -1.19176  -1.15200
 Alpha  occ. eigenvalues --   -1.12991  -1.09337  -1.07156  -1.04941  -1.03319
 Alpha  occ. eigenvalues --   -1.01618  -0.98321  -0.97505  -0.91638  -0.90814
 Alpha  occ. eigenvalues --   -0.90537  -0.87898  -0.86852  -0.85003  -0.83445
 Alpha  occ. eigenvalues --   -0.82476  -0.81509  -0.81340  -0.78932  -0.78267
 Alpha  occ. eigenvalues --   -0.77298  -0.76792  -0.75289  -0.74470  -0.73641
 Alpha  occ. eigenvalues --   -0.72974  -0.71775  -0.70760  -0.70661  -0.69565
 Alpha  occ. eigenvalues --   -0.69420  -0.68569  -0.67270  -0.66506  -0.65870
 Alpha  occ. eigenvalues --   -0.65299  -0.64021  -0.62178  -0.61541  -0.60982
 Alpha  occ. eigenvalues --   -0.60268  -0.57400  -0.55132  -0.54283  -0.53888
 Alpha  occ. eigenvalues --   -0.52952  -0.52207  -0.51138  -0.49745  -0.47687
 Alpha virt. eigenvalues --   -0.39722  -0.34881  -0.34796  -0.34231  -0.34031
 Alpha virt. eigenvalues --   -0.33197  -0.29896  -0.29413  -0.22803  -0.22233
 Alpha virt. eigenvalues --   -0.20293  -0.19424  -0.18645  -0.17665  -0.17285

 Mulliken charges:
               1
     1  Ca   1.612122
     2  C   -0.083713
     3  C   -0.155655
     4  H    0.161198
     5  H    0.148213
     6  C   -0.109973
     7  H    0.184418
     8  C    0.086066
     9  N    0.353571
    10  O   -0.242383
    11  O   -0.269612
    12  C   -0.111808
    13  H    0.197230
    14  C   -0.021915
    15  C   -0.017748
    16  N   -0.245024
    17  C    0.458572
    18  O   -0.533954
    19  H    0.193490
    20  C   -0.139764
    21  H    0.201151
    22  C   -0.155262
    23  H    0.182658
    24  H    0.184235
    25  N   -0.129433
    26  C    0.007310
    27  C   -0.109961
    28  H    0.150145
    29  C   -0.110352
    30  H    0.141891
    31  C   -0.079561
    32  H    0.144425
    33  C   -0.165731
    34  H    0.120698
    35  C    0.229741
    36  O   -0.367178
    37  H    0.291895
 Sum of Mulliken charges =   2.00000

 Dipole moment (field-independent basis, Debye):
    X=              2.4895    Y=             -9.6098    Z=              6.9427  Tot=             12.1139
 Quadrupole moment (field-independent basis, Debye-Ang):
   XX=           -143.0132   YY=            -59.1463   ZZ=            -88.7591
   XY=              0.9018   XZ=             20.4490   YZ=            -15.6958

 Summary of Natural Population Analysis:

                                       Natural Population
                Natural  -----------------------------------------------
    Atom  No    Charge         Core      Valence    Rydberg      Total
 -----------------------------------------------------------------------
     Ca    1    1.92041     17.99707     0.02106    0.06146    18.07959
      C    2   -0.18265      1.99928     4.16690    0.01647     6.18265
      C    3   -0.19224      1.99917     4.17643    0.01665     6.19224
      H    4    0.21756      0.00000     0.78034    0.00210     0.78244
      H    5    0.23527      0.00000     0.76308    0.00165     0.76473
      C    6   -0.16176      1.99914     4.14532    0.01730     6.16176
      H    7    0.26634      0.00000     0.73184    0.00182     0.73366
      C    8    0.05380      1.99880     3.92280    0.02461     5.94620
      N    9    0.54712      1.99959     4.41114    0.04215     6.45288
      O   10   -0.35239      1.99982     6.32498    0.02759     8.35239
      O   11   -0.37851      1.99982     6.36327    0.01542     8.37851
      C   12   -0.17927      1.99903     4.16261    0.01763     6.17927
      H   13    0.26193      0.00000     0.73579    0.00228     0.73807
      C   14   -0.09072      1.99907     4.07024    0.02141     6.09072
      C   15    0.14066      1.99895     3.83539    0.02499     5.85934
      N   16   -0.60567      1.99936     5.58562    0.02069     7.60567
      C   17    0.84933      1.99928     3.12219    0.02920     5.15067
      O   18   -0.90233      1.99975     6.87290    0.02968     8.90233
      H   19    0.36380      0.00000     0.63043    0.00576     0.63620
      C   20   -0.18793      1.99900     4.17606    0.01288     6.18793
      H   21    0.25696      0.00000     0.74161    0.00143     0.74304
      C   22   -0.20997      1.99935     4.19325    0.01737     6.20997
      H   23    0.23496      0.00000     0.76231    0.00273     0.76504
      H   24    0.22322      0.00000     0.77411    0.00267     0.77678
      N   25   -0.39705      1.99931     5.37374    0.02400     7.39705
      C   26    0.03976      1.99895     3.93625    0.02504     5.96024
      C   27   -0.18156      1.99917     4.16588    0.01652     6.18156
      H   28    0.22640      0.00000     0.77179    0.00180     0.77360
      C   29   -0.21023      1.99927     4.19359    0.01737     6.21023
      H   30    0.23650      0.00000     0.76183    0.00167     0.76350
      C   31   -0.14716      1.99929     4.13124    0.01662     6.14716
      H   32    0.23517      0.00000     0.76328    0.00155     0.76483
      C   33   -0.27164      1.99917     4.25561    0.01687     6.27164
      H   34    0.22291      0.00000     0.77501    0.00208     0.77709
      C   35    0.31631      1.99884     3.66303    0.02182     5.68369
      O   36   -0.69295      1.99979     6.68170    0.01146     8.69295
      H   37    0.49563      0.00000     0.49966    0.00470     0.50437
 =======================================================================
   * Total *    2.00000     63.98026   115.44229    0.57745   180.00000

 Normal termination of Gaussian 16 at Fri May 16 10:01:13 2025.
